LAMMPS output created by EMC v9.4.4

         274  atoms
         272  bonds
         540  angles
         792  dihedrals
         360  impropers

           3  atom types
           4  bond types
           8  angle types
          10  dihedral types
           8  improper types

             0    15.19022613  xlo xhi
             0    15.19022613  ylo yhi
             0    15.19022613  zlo zhi

Masses

       1   12.01115  # c
       2   12.01115  # c1
       3    1.00797  # hc

Pair Coeffs

       1    0.05400    4.01000  # c,c
       2    0.05400    4.01000  # c1,c1
       3    0.02000    2.99500  # hc,hc

Bond Coeffs

	1    1.53000  299.67000 -501.77000  679.81000  # c,c
	2    1.53000  299.67000 -501.77000  679.81000  # c,c1
	3    1.10100  345.00000 -691.89000  844.60000  # c,hc
	4    1.10100  345.00000 -691.89000  844.60000  # c1,hc

Angle Coeffs

	1  112.67000   39.51600   -7.44300   -9.55830  # c,c,c
	2  112.67000   39.51600   -7.44300   -9.55830  # c,c,c1
	3  110.77000   41.45300  -10.60400    5.12900  # c,c,hc
	4  112.67000   39.51600   -7.44300   -9.55830  # c,c1,c
	5  110.77000   41.45300  -10.60400    5.12900  # c,c1,hc
	6  112.67000   39.51600   -7.44300   -9.55830  # c1,c,c1
	7  110.77000   41.45300  -10.60400    5.12900  # c1,c,hc
	8  107.66000   39.64100  -12.92100   -2.43180  # hc,c,hc

BondBond Coeffs

	1    0.00000    1.53000    1.53000  # c,c,c
	2    0.00000    1.53000    1.53000  # c,c,c1
	3    3.38720    1.53000    1.10100  # c,c,hc
	4    0.00000    1.53000    1.53000  # c,c1,c
	5    3.38720    1.53000    1.10100  # c,c1,hc
	6    0.00000    1.53000    1.53000  # c1,c,c1
	7    3.38720    1.53000    1.10100  # c1,c,hc
	8    5.33160    1.10100    1.10100  # hc,c,hc

BondAngle Coeffs

	1    8.01600    8.01600    1.53000    1.53000  # c,c,c
	2    8.01600    8.01600    1.53000    1.53000  # c,c,c1
	3   20.75400   11.42100    1.53000    1.10100  # c,c,hc
	4    8.01600    8.01600    1.53000    1.53000  # c,c1,c
	5   20.75400   11.42100    1.53000    1.10100  # c,c1,hc
	6    8.01600    8.01600    1.53000    1.53000  # c1,c,c1
	7   11.42100   20.75400    1.53000    1.10100  # c1,c,hc
	8   18.10300   18.10300    1.10100    1.10100  # hc,c,hc

Dihedral Coeffs

	 1    0.00000    0.00000    0.05140    0.00000   -0.14300    0.00000  # c,c,c,c1
	 2    0.00000    0.00000    0.03160    0.00000   -0.16810    0.00000  # c,c,c,hc
	 3    0.00000    0.00000    0.05140    0.00000   -0.14300    0.00000  # c,c,c1,c
	 4    0.00000    0.00000    0.03160    0.00000   -0.16810    0.00000  # c,c,c1,hc
	 5    0.00000    0.00000    0.05140    0.00000   -0.14300    0.00000  # c,c1,c,c1
	 6    0.00000    0.00000    0.03160    0.00000   -0.16810    0.00000  # c,c1,c,hc
	 7    0.00000    0.00000    0.03160    0.00000   -0.16810    0.00000  # c1,c,c,hc
	 8    0.00000    0.00000    0.03160    0.00000   -0.16810    0.00000  # c1,c,c1,hc
	 9   -0.14320    0.00000    0.06170    0.00000   -0.10830    0.00000  # hc,c,c,hc
	10   -0.14320    0.00000    0.06170    0.00000   -0.10830    0.00000  # hc,c,c1,hc

MiddleBondTorsion Coeffs

	 1  -17.78700   -7.18770    0.00000    1.53000  # c,c,c,c1
	 2  -14.87900   -3.65810   -0.31380    1.53000  # c,c,c,hc
	 3  -17.78700   -7.18770    0.00000    1.53000  # c,c,c1,c
	 4  -14.87900   -3.65810   -0.31380    1.53000  # c,c,c1,hc
	 5  -17.78700   -7.18770    0.00000    1.53000  # c,c1,c,c1
	 6  -14.87900   -3.65810   -0.31380    1.53000  # c,c1,c,hc
	 7  -14.87900   -3.65810   -0.31380    1.53000  # c1,c,c,hc
	 8  -14.87900   -3.65810   -0.31380    1.53000  # c1,c,c1,hc
	 9  -14.26100   -0.53220   -0.48640    1.53000  # hc,c,c,hc
	10  -14.26100   -0.53220   -0.48640    1.53000  # hc,c,c1,hc

EndBondTorsion Coeffs

	 1   -0.07320    0.00000    0.00000   -0.07320    0.00000    0.00000    1.53000    1.53000  # c,c,c,c1
	 2    0.24860    0.24220   -0.09250    0.08140    0.05910    0.22190    1.53000    1.10100  # c,c,c,hc
	 3   -0.07320    0.00000    0.00000   -0.07320    0.00000    0.00000    1.53000    1.53000  # c,c,c1,c
	 4    0.24860    0.24220   -0.09250    0.08140    0.05910    0.22190    1.53000    1.10100  # c,c,c1,hc
	 5   -0.07320    0.00000    0.00000   -0.07320    0.00000    0.00000    1.53000    1.53000  # c,c1,c,c1
	 6    0.24860    0.24220   -0.09250    0.08140    0.05910    0.22190    1.53000    1.10100  # c,c1,c,hc
	 7    0.08140    0.05910    0.22190    0.24860    0.24220   -0.09250    1.53000    1.10100  # c1,c,c,hc
	 8    0.08140    0.05910    0.22190    0.24860    0.24220   -0.09250    1.53000    1.10100  # c1,c,c1,hc
	 9    0.21300    0.31200    0.07770    0.21300    0.31200    0.07770    1.10100    1.10100  # hc,c,c,hc
	10    0.21300    0.31200    0.07770    0.21300    0.31200    0.07770    1.10100    1.10100  # hc,c,c1,hc

AngleTorsion Coeffs

	 1    0.38860   -0.31390    0.13890    0.38860   -0.31390    0.13890  112.67000  112.67000  # c,c,c,c1
	 2   -0.24540    0.00000   -0.11360    0.31130    0.45160   -0.19880  112.67000  110.77000  # c,c,c,hc
	 3    0.38860   -0.31390    0.13890    0.38860   -0.31390    0.13890  112.67000  112.67000  # c,c,c1,c
	 4   -0.24540    0.00000   -0.11360    0.31130    0.45160   -0.19880  112.67000  110.77000  # c,c,c1,hc
	 5    0.38860   -0.31390    0.13890    0.38860   -0.31390    0.13890  112.67000  112.67000  # c,c1,c,c1
	 6   -0.24540    0.00000   -0.11360    0.31130    0.45160   -0.19880  112.67000  110.77000  # c,c1,c,hc
	 7    0.31130    0.45160   -0.19880   -0.24540    0.00000   -0.11360  112.67000  110.77000  # c1,c,c,hc
	 8    0.31130    0.45160   -0.19880   -0.24540    0.00000   -0.11360  112.67000  110.77000  # c1,c,c1,hc
	 9   -0.80850    0.55690   -0.24660   -0.80850    0.55690   -0.24660  110.77000  110.77000  # hc,c,c,hc
	10   -0.80850    0.55690   -0.24660   -0.80850    0.55690   -0.24660  110.77000  110.77000  # hc,c,c1,hc

AngleAngleTorsion Coeffs

	 1  -22.04500  112.67000  112.67000  # c,c,c,c1
	 2  -16.16400  112.67000  110.77000  # c,c,c,hc
	 3  -22.04500  112.67000  112.67000  # c,c,c1,c
	 4  -16.16400  112.67000  110.77000  # c,c,c1,hc
	 5  -22.04500  112.67000  112.67000  # c,c1,c,c1
	 6  -16.16400  112.67000  110.77000  # c,c1,c,hc
	 7  -16.16400  112.67000  110.77000  # c1,c,c,hc
	 8  -16.16400  112.67000  110.77000  # c1,c,c1,hc
	 9  -12.56400  110.77000  110.77000  # hc,c,c,hc
	10  -12.56400  110.77000  110.77000  # hc,c,c1,hc

BondBond13 Coeffs

	 1    0.00000    1.53000    1.53000  # c,c,c,c1
	 2    0.00000    1.53000    1.10100  # c,c,c,hc
	 3    0.00000    1.53000    1.53000  # c,c,c1,c
	 4    0.00000    1.53000    1.10100  # c,c,c1,hc
	 5    0.00000    1.53000    1.53000  # c,c1,c,c1
	 6    0.00000    1.53000    1.10100  # c,c1,c,hc
	 7    0.00000    1.53000    1.10100  # c1,c,c,hc
	 8    0.00000    1.53000    1.10100  # c1,c,c1,hc
	 9    0.00000    1.10100    1.10100  # hc,c,c,hc
	10    0.00000    1.10100    1.10100  # hc,c,c1,hc

Improper Coeffs

	1    0.00000    0.00000  # c,c,c,hc
	2    0.00000    0.00000  # c,c,hc,c1
	3    0.00000    0.00000  # c,c,hc,hc
	4    0.00000    0.00000  # c,c1,c1,hc
	5    0.00000    0.00000  # c,c1,hc,hc
	6    0.00000    0.00000  # c,hc,hc,hc
	7    0.00000    0.00000  # c1,c,c,c
	8    0.00000    0.00000  # c1,c,c,hc

AngleAngle Coeffs

	1   -1.31990   -1.31990    0.11840  112.67000  110.77000  110.77000  # c,c,c,hc
	2    0.11840    0.00000   -1.31990  110.77000  112.67000  110.77000  # c,c,hc,c1
	3    0.27380   -0.48250    0.27380  110.77000  110.77000  107.66000  # c,c,hc,hc
	4    0.00000    0.00000    0.11840  112.67000  110.77000  110.77000  # c,c1,c1,hc
	5    0.00000   -0.48250    0.00000  110.77000  110.77000  107.66000  # c,c1,hc,hc
	6   -0.31570   -0.31570   -0.31570  107.66000  107.66000  107.66000  # c,hc,hc,hc
	7   -0.17290   -0.17290   -0.17290  112.67000  112.67000  112.67000  # c1,c,c,c
	8   -1.31990   -1.31990    0.11840  112.67000  110.77000  110.77000  # c1,c,c,hc

Atoms

       1       1   1 -0.1590   7.7994350797  11.2368988964   6.7720280065  # c
       2       1   3  0.0530   8.4055778570  10.3871850391   7.2119276847  # hc
       3       1   3  0.0530   7.3736786845  11.9225973264   7.4884133308  # hc
       4       1   2 -0.0530   6.6898607181  10.8477042851   5.7654619772  # c1
       5       1   3  0.0530   6.1796197259  11.7422072092   5.3213280111  # hc
       6       1   1 -0.1590   5.4408261215  10.3510505125   6.5930827278  # c
       7       1   3  0.0530   5.3445882032  11.0590539695   7.4748123562  # hc
       8       1   3  0.0530   5.6590673485   9.3514041679   7.0323399290  # hc
       9       1   3  0.0530   4.5465728516  10.4094754640   6.0156013612  # hc
      10       1   1 -0.1060   7.1541640828  10.1447523869   4.4882937355  # c
      11       1   3  0.0530   7.6862545227   9.2415249858   4.8235395676  # hc
      12       1   3  0.0530   7.8566932458  10.7526582522   3.9515315398  # hc
      13       1   2 -0.0530   6.0344717363   9.6275277120   3.5450153377  # c1
      14       1   3  0.0530   5.1581148865  10.2020907536   3.6828362480  # hc
      15       1   1 -0.1590   6.3562557144   9.9638633787   2.1204668775  # c
      16       1   3  0.0530   5.6093281835   9.6427570071   1.4236066870  # hc
      17       1   3  0.0530   6.2994455779  11.0335423838   2.0081700320  # hc
      18       1   3  0.0530   7.3347056161   9.5071106600   1.8731173001  # hc
      19       1   1 -0.1060   5.7542662234   8.1013547126   4.0115383450  # c
      20       1   3  0.0530   5.4979937208   8.1220743415   5.1383501013  # hc
      21       1   3  0.0530   6.7613281115   7.5690117553   3.9814283332  # hc
      22       1   2 -0.0530   4.8063978458   7.1037462494   3.3182272715  # c1
      23       1   3  0.0530   4.8230318990   6.1446952226   3.9071656680  # hc
      24       1   1 -0.1590   3.4162774751   7.6123305876   3.6024110819  # c
      25       1   3  0.0530   3.3251772569   8.6559960976   3.2078284181  # hc
      26       1   3  0.0530   2.5231614128   7.1138215355   3.2810962373  # hc
      27       1   3  0.0530   3.3482850042   7.5420433375   4.7572773515  # hc
      28       1   1 -0.1060   5.1026231882   6.5855261481   1.8832001147  # c
      29       1   3  0.0530   6.1737623503   6.3136277252   1.9875685732  # hc
      30       1   3  0.0530   5.1358757649   7.3618612876   1.0846531100  # hc
      31       1   2 -0.0530   4.2171147163   5.4180293282   1.3988134181  # c1
      32       1   3  0.0530   4.7478459784   5.0716572686   0.5057806601  # hc
      33       1   1 -0.1590   4.2388014096   4.1620255956   2.3762600300  # c
      34       1   3  0.0530   5.2101370399   4.0355070001   2.8342418678  # hc
      35       1   3  0.0530   3.4686676976   4.3669785900   3.1632492196  # hc
      36       1   3  0.0530   3.8464418065   3.2063733787   1.7934803215  # hc
      37       1   1 -0.1060   2.8386968510   5.7526527391   0.8855452155  # c
      38       1   3  0.0530   2.4654825884   4.7484065876   0.3649919107  # hc
      39       1   3  0.0530   2.1358717364   5.9037126122   1.7726668005  # hc
      40       1   2 -0.0530   2.4889713548   6.9638086721  -0.1089166467  # c1
      41       1   3  0.0530   1.4663061384   6.6812975902  -0.1672540029  # hc
      42       1   1 -0.1590   2.5944280447   8.3814562020   0.3922499027  # c
      43       1   3  0.0530   3.6068370593   8.6950180050   0.1480685564  # hc
      44       1   3  0.0530   1.8180998275   9.0024891665  -0.1404892392  # hc
      45       1   3  0.0530   2.3213541845   8.4416433503   1.4659596470  # hc
      46       1   1 -0.1060   3.0921883805   6.7348113549  -1.4762372422  # c
      47       1   3  0.0530   4.1899945534   6.9303331566  -1.4560380576  # hc
      48       1   3  0.0530   3.1232863380   5.6642634517  -1.6712589159  # hc
      49       1   2 -0.0530   2.5870981060   7.4239201709  -2.7302435376  # c1
      50       1   3  0.0530   3.1640560392   7.2107205384  -3.6175961088  # hc
      51       1   1 -0.1590   2.6195420544   8.9862512029  -2.7384804507  # c
      52       1   3  0.0530   1.8701574602   9.4121806118  -2.0276353132  # hc
      53       1   3  0.0530   3.5024947801   9.4356174622  -2.3405216676  # hc
      54       1   3  0.0530   2.3927029153   9.2913166037  -3.7713690295  # hc
      55       1   1 -0.1060   1.1238210059   6.9793298220  -3.0373537370  # c
      56       1   3  0.0530   0.6290016496   6.9926809331  -2.0506656354  # hc
      57       1   3  0.0530   0.6823924412   7.8556564573  -3.5806628247  # hc
      58       1   2 -0.0530   0.7806833603   5.6463283667  -3.8291045612  # c1
      59       1   3  0.0530  -0.3414462103   5.7405367457  -3.7661837854  # hc
      60       1   1 -0.1590   1.2627663967   4.3683072095  -3.1023123588  # c
      61       1   3  0.0530   1.2992479106   4.6403170475  -2.0160225405  # hc
      62       1   3  0.0530   2.3115771042   4.0240689971  -3.2429240640  # hc
      63       1   3  0.0530   0.5452627720   3.5591552980  -3.4125853729  # hc
      64       1   1 -0.1060   1.1794691540   5.6932582598  -5.2838056637  # c
      65       1   3  0.0530   2.2494538558   5.9303901868  -5.3325291653  # hc
      66       1   3  0.0530   1.0637215333   4.6627161749  -5.6405426889  # hc
      67       1   2 -0.0530   0.3923831058   6.5780881804  -6.2412308262  # c1
      68       1   3  0.0530   1.0380389341   6.7518193538  -7.0208587518  # hc
      69       1   1 -0.1590  -0.1963533878   7.9354009908  -5.9260196747  # c
      70       1   3  0.0530  -0.7617248652   8.3243159691  -6.7867477392  # hc
      71       1   3  0.0530   0.7254788683   8.6069041922  -5.7139642841  # hc
      72       1   3  0.0530  -0.8538357462   7.9131223197  -5.1295524393  # hc
      73       1   1 -0.1060  -0.5937288825   5.6353424089  -6.9421790639  # c
      74       1   3  0.0530  -1.4520832355   5.3517694415  -6.2707492440  # hc
      75       1   3  0.0530  -0.1301255299   4.6367148915  -7.1677796543  # hc
      76       1   2 -0.0530  -1.3150065999   6.1493744157  -8.2493922296  # c1
      77       1   3  0.0530  -2.2128187620   6.7218243719  -7.8660477201  # hc
      78       1   1 -0.1590  -0.4236202332   6.9646964226  -9.1767213633  # c
      79       1   3  0.0530  -0.5495733813   6.8188108652 -10.3150012355  # hc
      80       1   3  0.0530  -0.4381406802   8.0242406271  -9.1516681156  # hc
      81       1   3  0.0530   0.6404065876   6.7350007480  -9.0685539966  # hc
      82       1   1 -0.1060  -1.7293140126   4.9484643136  -9.0889958262  # c
      83       1   3  0.0530  -2.1992954188   5.3189391811  -9.9761208583  # hc
      84       1   3  0.0530  -0.7948778856   4.4506642012  -9.4672407419  # hc
      85       1   2 -0.0530  -2.6564368975   3.7998784454  -8.6931964587  # c1
      86       1   3  0.0530  -3.7143527413   4.1202964134  -8.4071012901  # hc
      87       1   1 -0.1590  -2.7068702430   2.8241903932  -9.8957540574  # c
      88       1   3  0.0530  -2.6987647367   3.3582458306 -10.8920111678  # hc
      89       1   3  0.0530  -1.7312480723   2.2804773092 -10.0521131298  # hc
      90       1   3  0.0530  -3.4968704081   2.0827994735  -9.9405903478  # hc
      91       1   1 -0.1060  -2.2120093199   2.7305927991  -7.5578914073  # c
      92       1   3  0.0530  -1.4618926759   2.0815205414  -8.0406632096  # hc
      93       1   3  0.0530  -3.0962532735   2.0963349151  -7.5111936005  # hc
      94       1   2 -0.0530  -1.7276754621   2.7875768378  -6.0675334540  # c1
      95       1   3  0.0530  -0.8634472732   3.3841386709  -6.0332241031  # hc
      96       1   1 -0.1590  -1.2946479432   1.3166961881  -5.7580469965  # c
      97       1   3  0.0530  -0.3125861623   0.9966340127  -6.2554424627  # hc
      98       1   3  0.0530  -1.2681017285   0.9202926291  -4.7647915955  # hc
      99       1   3  0.0530  -1.9969979489   0.5384634347  -6.1307777158  # hc
     100       1   1 -0.1060  -2.5904217341   3.4272187734  -5.0133975603  # c
     101       1   3  0.0530  -2.6346524983   4.5245995869  -5.2075791552  # hc
     102       1   3  0.0530  -1.9520462038   3.2908166943  -4.0979976628  # hc
     103       1   2 -0.0530  -3.9307643399   2.8877799606  -4.5539602154  # c1
     104       1   3  0.0530  -4.6989193550   3.3718229142  -5.1904511144  # hc
     105       1   1 -0.1590  -4.3331858873   1.3948975749  -4.6789710267  # c
     106       1   3  0.0530  -3.7825357921   0.7435320968  -4.0124618624  # hc
     107       1   3  0.0530  -5.4506858216   1.3159033355  -4.5614594685  # hc
     108       1   3  0.0530  -4.2312816806   0.9743273903  -5.6629666225  # hc
     109       1   1 -0.1060  -4.3576724206   3.3825577758  -3.1129635101  # c
     110       1   3  0.0530  -5.0238108856   2.5837682520  -2.6681052608  # hc
     111       1   3  0.0530  -5.0488869439   4.2623561532  -3.2086774687  # hc
     112       1   2 -0.0530  -3.3250801602   3.7104435008  -2.0591594806  # c1
     113       1   3  0.0530  -3.8554629707   3.8913982207  -1.1576181080  # hc
     114       1   1 -0.1590  -2.5249150787   2.3639319513  -1.8190628002  # c
     115       1   3  0.0530  -1.4315495155   2.4264453885  -1.8093720987  # hc
     116       1   3  0.0530  -2.7797594515   1.6431634143  -2.5613322619  # hc
     117       1   3  0.0530  -2.8750229725   1.9190000909  -0.8967726900  # hc
     118       1   1 -0.1060  -2.5490418421   5.0564127976  -2.2644339229  # c
     119       1   3  0.0530  -1.6094135933   4.8059083749  -2.6685084568  # hc
     120       1   3  0.0530  -3.1552488261   5.6897632811  -2.9433114363  # hc
     121       1   2 -0.0530  -2.1883891928   5.8654376462  -0.9846188160  # c1
     122       1   3  0.0530  -3.0101547556   5.9924118603  -0.2590995991  # hc
     123       1   1 -0.1590  -2.0198695940   7.3720362490  -1.4325057496  # c
     124       1   3  0.0530  -2.9874756339   7.9039114473  -1.5193264073  # hc
     125       1   3  0.0530  -1.5283742869   7.4928248733  -2.4839257286  # hc
     126       1   3  0.0530  -1.3484436718   8.0376739064  -0.8128418949  # hc
     127       1   1 -0.1060  -0.9903507660   5.3685564411  -0.0879249190  # c
     128       1   3  0.0530  -0.6168396791   6.2853292038   0.4553082706  # hc
     129       1   3  0.0530  -0.1718821494   4.8689962993  -0.4815993038  # hc
     130       1   1 -0.1060  -1.4600453211   4.4171830084   1.0649761226  # c
     131       1   3  0.0530  -2.5184912431   4.1827815514   1.0294546992  # hc
     132       1   1 -0.1590  -0.7648942509   2.9624031258   0.9993201237  # c
     133       1   3  0.0530  -0.5944086856   2.4466060938   1.9766402086  # hc
     134       1   3  0.0530  -1.3280971008   2.1928876577   0.4089022541  # hc
     135       1   3  0.0530   0.1992072839   3.0858371789   0.5742444878  # hc
     136       1   3  0.0530   8.5014965177  11.8525824368   6.1583236891  # hc
     137       1   3  0.0530  -1.2344505720   4.8287866162   2.1046264757  # hc
     138       2   1 -0.1590   6.3305769371   3.9373837648  12.5568625389  # c
     139       2   3  0.0530   6.2944150066   4.8448810574  11.8913479169  # hc
     140       2   3  0.0530   5.3082910035   3.5756182954  12.7361313530  # hc
     141       2   2 -0.0530   7.2693924092   2.9203165322  11.8777370456  # c1
     142       2   3  0.0530   8.2489970816   3.4186571587  11.7810048124  # hc
     143       2   1 -0.1590   6.9040069218   2.3530089769  10.4452493159  # c
     144       2   3  0.0530   5.9712796590   2.8443997072   9.9936363729  # hc
     145       2   3  0.0530   7.7267113528   2.5580850819   9.7142276646  # hc
     146       2   3  0.0530   6.8228163822   1.2888488152  10.4425238905  # hc
     147       2   1 -0.1060   7.6556459238   1.7313054440  12.7034581413  # c
     148       2   3  0.0530   8.1659381244   1.0321618675  12.0091056069  # hc
     149       2   3  0.0530   8.4361622825   1.9997647468  13.5461500480  # hc
     150       2   2 -0.0530   6.5245554815   0.9515766855  13.3029279995  # c1
     151       2   3  0.0530   6.0084612021   1.5081459980  14.2561338447  # hc
     152       2   1 -0.1590   5.3175439732   0.6665490466  12.3561924609  # c
     153       2   3  0.0530   5.5492238409  -0.0841144559  11.5583529354  # hc
     154       2   3  0.0530   4.8874584404   1.5737497627  11.9303670376  # hc
     155       2   3  0.0530   4.5342827011   0.2566189100  13.0353201182  # hc
     156       2   1 -0.1060   7.2137021893  -0.4009195916  13.6355694228  # c
     157       2   3  0.0530   7.2012109589  -0.8975739031  12.6778654252  # hc
     158       2   3  0.0530   8.2345116293  -0.1544343113  13.9248158666  # hc
     159       2   2 -0.0530   6.7406476568  -1.4407072632  14.7176417016  # c1
     160       2   3  0.0530   7.1214631012  -1.0565814828  15.6742511453  # hc
     161       2   1 -0.1590   5.1886368449  -1.5701832281  14.8469539390  # c
     162       2   3  0.0530   4.7725503270  -0.6620336961  15.2053672713  # hc
     163       2   3  0.0530   4.7609871763  -1.8830839274  13.8954335740  # hc
     164       2   3  0.0530   4.9688376382  -2.3690382589  15.5748238215  # hc
     165       2   1 -0.1060   7.2844989114  -2.8775561060  14.3890132127  # c
     166       2   3  0.0530   6.7711191713  -3.6981427810  14.9522099455  # hc
     167       2   3  0.0530   7.0634359892  -3.0747560277  13.2978950276  # hc
     168       2   2 -0.0530   8.8210354023  -2.9554081872  14.3978035553  # c1
     169       2   3  0.0530   9.2663359751  -2.0409311613  13.9039812679  # hc
     170       2   1 -0.1590   9.3777066428  -3.0371061923  15.9122308572  # c
     171       2   3  0.0530   8.7669070636  -2.3059605988  16.5465586212  # hc
     172       2   3  0.0530  10.4336786145  -2.8287806063  16.1329317054  # hc
     173       2   3  0.0530   9.2760608964  -4.1016397031  16.3029696039  # hc
     174       2   1 -0.1060   9.4543569628  -4.1591614230  13.5391855398  # c
     175       2   3  0.0530   9.0870782081  -5.0605698592  14.0918458494  # hc
     176       2   3  0.0530  10.5275997810  -4.1089042182  13.7394664500  # hc
     177       2   2 -0.0530   9.1772740975  -4.2481756511  12.0059225983  # c1
     178       2   3  0.0530  10.0811852357  -4.8472025018  11.6375852908  # hc
     179       2   1 -0.1590   9.2719549608  -2.8740671619  11.3295290225  # c
     180       2   3  0.0530  10.2591011006  -2.4512297300  11.5491611243  # hc
     181       2   3  0.0530   8.4537689050  -2.2568171638  11.7538907556  # hc
     182       2   3  0.0530   9.3411143562  -3.0022696793  10.2492191321  # hc
     183       2   1 -0.1060   8.0301670778  -5.2696887090  11.7516636735  # c
     184       2   3  0.0530   8.3416337810  -6.3027125114  11.9836732700  # hc
     185       2   3  0.0530   7.2216335943  -5.2176031815  12.5224758814  # hc
     186       2   2 -0.0530   7.3319374280  -5.1712578544  10.4170323513  # c1
     187       2   3  0.0530   8.1275288570  -4.7225676036   9.7210775145  # hc
     188       2   1 -0.1590   6.1415368236  -4.2364206126  10.4550783696  # c
     189       2   3  0.0530   5.2254535105  -4.6448105662  10.8909642227  # hc
     190       2   3  0.0530   5.9926017534  -3.8209997275   9.4253157787  # hc
     191       2   3  0.0530   6.3451405775  -3.3214005661  11.0717642109  # hc
     192       2   1 -0.1060   6.9547636751  -6.4594710918   9.6582137901  # c
     193       2   3  0.0530   7.7533334873  -7.2080324459   9.8304507367  # hc
     194       2   3  0.0530   6.9171453698  -6.0752970480   8.5395512425  # hc
     195       2   2 -0.0530   5.6509847924  -7.2079274061   9.9252197151  # c1
     196       2   3  0.0530   4.8092019550  -6.4002817348   9.9084546428  # hc
     197       2   1 -0.1590   5.6676188767  -7.6491878661  11.3867750372  # c
     198       2   3  0.0530   6.5817096934  -8.0589194881  11.7005217194  # hc
     199       2   3  0.0530   5.5606272948  -6.8448921489  12.0945349603  # hc
     200       2   3  0.0530   4.9397479521  -8.4661223998  11.4731505420  # hc
     201       2   1 -0.1060   5.2413093771  -8.3223318827   8.9806249334  # c
     202       2   3  0.0530   4.1653136953  -8.5187847958   8.9864851311  # hc
     203       2   3  0.0530   5.3304818289  -7.9272628676   7.9464095971  # hc
     204       2   2 -0.0530   5.9257958405  -9.7208288232   8.9687675128  # c1
     205       2   3  0.0530   5.4776683321 -10.1238630156   9.9274101602  # hc
     206       2   1 -0.1590   5.1737987415 -10.6331511296   7.9222859852  # c
     207       2   3  0.0530   5.1194277321 -10.0805721463   6.9188803430  # hc
     208       2   3  0.0530   4.1227490862 -10.8263900163   8.3795196580  # hc
     209       2   3  0.0530   5.7225137154 -11.5615703013   7.7016503134  # hc
     210       2   1 -0.1060   7.4197935289  -9.8201228171   9.1981068825  # c
     211       2   3  0.0530   7.6019455423  -8.9966095834   9.9476412738  # hc
     212       2   3  0.0530   7.5433997939 -10.7494111877   9.7863315430  # hc
     213       2   2 -0.0530   8.6964429096  -9.7691745742   8.3693615697  # c1
     214       2   3  0.0530   8.8701371010 -10.8137975668   8.0869454487  # hc
     215       2   1 -0.1590   9.9430635347  -9.1734811051   9.2816775709  # c
     216       2   3  0.0530   9.9497550422  -9.5422170938  10.3445758413  # hc
     217       2   3  0.0530   9.8491987731  -8.0953034161   9.3299860252  # hc
     218       2   3  0.0530  10.9654218837  -9.3615211619   8.9680479115  # hc
     219       2   1 -0.1060   9.0106352969  -9.0065949239   7.0733342809  # c
     220       2   3  0.0530   9.1075113579  -7.8901610685   7.3213028817  # hc
     221       2   3  0.0530  10.0788999223  -9.3734569779   6.8155571438  # hc
     222       2   2 -0.0530   8.2023684657  -9.0523306858   5.6836715990  # c1
     223       2   3  0.0530   7.3436368154  -8.3753491558   5.8454327314  # hc
     224       2   1 -0.1590   7.6290783818 -10.4403103391   5.3103826067  # c
     225       2   3  0.0530   6.8353188414 -10.7599209309   6.0391556078  # hc
     226       2   3  0.0530   8.3616090413 -11.2387974139   5.3472313877  # hc
     227       2   3  0.0530   7.1846180197 -10.3687394115   4.3187055412  # hc
     228       2   1 -0.1060   9.2546123951  -8.3846359572   4.7130148830  # c
     229       2   3  0.0530   9.8097251352  -7.7010701011   5.3818668331  # hc
     230       2   3  0.0530   8.7635231071  -7.8006822351   3.9303790780  # hc
     231       2   2 -0.0530  10.3713442721  -9.0710288145   3.8525981794  # c1
     232       2   3  0.0530  11.2388826072  -8.9059971775   4.4845130419  # hc
     233       2   1 -0.1590  10.1509087856 -10.5910549009   3.7458557107  # c
     234       2   3  0.0530   9.2686761672 -10.8471406994   3.1793842111  # hc
     235       2   3  0.0530  10.3289522594 -11.0574750673   4.7354718509  # hc
     236       2   3  0.0530  11.0254357126 -11.0222203319   3.2499462530  # hc
     237       2   1 -0.1060  10.7001992501  -8.2511481141   2.5772685071  # c
     238       2   3  0.0530  10.6613976269  -7.2256456174   2.8908926506  # hc
     239       2   3  0.0530  11.8077710458  -8.4362715589   2.3199997428  # hc
     240       2   2 -0.0530  10.0063574297  -8.4076213558   1.1788852706  # c1
     241       2   3  0.0530  10.7168034622  -7.8229212269   0.4418283108  # hc
     242       2   1 -0.1590   8.6911290678  -7.6928560591   0.9726576863  # c
     243       2   3  0.0530   8.3058365942  -7.9174590397  -0.0723913907  # hc
     244       2   3  0.0530   8.0229381629  -8.0708278152   1.7386155158  # hc
     245       2   3  0.0530   8.8329513821  -6.6077480799   0.8552801319  # hc
     246       2   1 -0.1060  10.0256894491  -9.8453212851   0.5700044030  # c
     247       2   3  0.0530  10.9780190372 -10.2843728283   0.9130550264  # hc
     248       2   3  0.0530  10.1984247473  -9.6259214088  -0.5144301379  # hc
     249       2   2 -0.0530   9.0169715133 -11.0573151745   0.4776844403  # c1
     250       2   3  0.0530   8.8950975971 -11.1841594348  -0.6200901251  # hc
     251       2   1 -0.1590   7.6492599763 -10.7771325015   1.0332160439  # c
     252       2   3  0.0530   6.9625267185 -11.5182200217   0.5887755125  # hc
     253       2   3  0.0530   7.5727840288 -10.7941772345   2.1353830557  # hc
     254       2   3  0.0530   7.1404258669  -9.8556467910   0.7011698453  # hc
     255       2   1 -0.1060   9.7217941556 -12.3465637482   0.9335165944  # c
     256       2   3  0.0530  10.4424202011 -12.5372465060   0.1069849429  # hc
     257       2   3  0.0530  10.3751928947 -12.1868378514   1.8301650762  # hc
     258       2   2 -0.0530   9.0266172807 -13.6427299690   1.0839929532  # c1
     259       2   3  0.0530   8.4415619641 -13.8713299383   0.1609252774  # hc
     260       2   1 -0.1590   8.0556291824 -13.7678200127   2.2110761016  # c
     261       2   3  0.0530   8.5488521974 -13.4042181466   3.2045694430  # hc
     262       2   3  0.0530   7.1989012692 -13.1940002626   1.9167990487  # hc
     263       2   3  0.0530   7.7571958349 -14.7764176156   2.3963894537  # hc
     264       2   1 -0.1060  10.0665422897 -14.8055572634   1.0614408979  # c
     265       2   3  0.0530  10.8756748806 -14.5623706546   0.3139488647  # hc
     266       2   3  0.0530   9.4968050363 -15.5993203974   0.5492192419  # hc
     267       2   1 -0.1060  10.8928613855 -15.1530926903   2.3300770060  # c
     268       2   3  0.0530  11.7886668983 -15.7350213098   1.9937757435  # hc
     269       2   1 -0.1590  10.3733569015 -15.9377941355   3.5880414809  # c
     270       2   3  0.0530   9.4598078421 -15.3833021275   4.0114220606  # hc
     271       2   3  0.0530  11.2780780465 -15.9890443785   4.2503308929  # hc
     272       2   3  0.0530  10.0415074684 -16.9625212352   3.3173724615  # hc
     273       2   3  0.0530   6.7768481777   4.2408994379  13.4837591062  # hc
     274       2   3  0.0530  11.3334311288 -14.1947683407   2.7112449501  # hc

Bonds

       1       3       1     136  # c,hc
       2       2       1       4  # c,c1
       3       3       1       2  # c,hc
       4       3       1       3  # c,hc
       5       2      10       4  # c,c1
       6       2       6       4  # c,c1