(written by ASE)

2192 atoms
2 atom types

0.0      30.380452259999998  xlo xhi
0.0      30.380452259999998  ylo yhi
0.0      30.380452259999998  zlo zhi

Atoms # atomic

     1   1      7.7994350800000003              11.2368989      6.7720280099999997
     2   2      8.4055778599999993      10.387185039999999      7.2119276799999987
     3   2      7.3736786799999994             11.92259733      7.4884133300000002
     4   1      6.6898607199999995      10.847704289999998      5.7654619800000004
     5   2      6.1796197299999998             11.74220721      5.3213280099999993
     6   1      5.4408261199999988      10.351050509999999      6.5930827299999999
     7   2      5.3445881999999996      11.059053969999999      7.4748123599999996
     8   2      5.6590673499999991      9.3514041699999986              7.03233993
     9   2      4.5465728500000004      10.409475459999999      6.0156013599999989
    10   1      7.1541640800000001      10.144752390000001      4.4882937399999996
    11   2      7.6862545199999994      9.2415249900000003      4.8235395700000003
    12   2      7.8566932499999993             10.75265825              3.95153154
    13   1       6.034471739999999      9.6275277100000007              3.54501534
    14   2      5.1581148900000002             10.20209075      3.6828362499999994
    15   1      6.3562557100000001      9.9638633799999994      2.1204668799999999
    16   2      5.6093281800000003      9.6427570100000004              1.42360669
    17   2      6.2994455799999995             11.03354238      2.0081700300000001
    18   2      7.3347056200000003      9.5071106599999986      1.8731173000000001
    19   1       5.754266219999999      8.1013547100000007      4.0115383400000004
    20   2      5.4979937200000002      8.1220743399999993      5.1383501000000003
    21   2      6.7613281099999991      7.5690117599999995              3.98142833
    22   1      4.8063978499999997      7.1037462500000004              3.31822727
    23   2      4.8230318999999993              6.14469522      3.9071656699999999
    24   1      3.4162774800000002      7.6123305899999991      3.6024110799999995
    25   2      3.3251772599999998      8.6559960999999994      3.2078284199999993
    26   2      2.5231614100000002              7.11382154      3.2810962399999997
    27   2      3.3482850000000002      7.5420433400000002      4.7572773499999998
    28   1      5.1026231900000001      6.5855261499999997              1.88320011
    29   2      6.1737623499999987      6.3136277300000003      1.9875685699999999
    30   2      5.1358757600000002      7.3618612900000002      1.0846531100000001
    31   1      4.2171147199999997      5.4180293300000004      1.3988134199999998
    32   2      4.7478459800000001      5.0716572700000002     0.50578065999999999
    33   1      4.2388014099999998      4.1620255999999989      2.3762600300000001
    34   2      5.2101370399999993                4.035507      2.8342418700000001
    35   2      3.4686676999999997      4.3669785900000004              3.16324922
    36   2              3.84644181      3.2063733799999996              1.79348032
    37   1      2.8386968499999998      5.7526527399999994     0.88554522000000002
    38   2      2.4654825899999997      4.7484065899999992     0.36499190999999992
    39   2      2.1358717399999998      5.9037126100000004      1.7726667999999999
    40   1      2.4889713499999999      6.9638086699999997             -0.10891665
    41   2      1.4663061399999999      6.6812975899999998    -0.16725400000000001
    42   1      2.5944280399999999      8.3814562000000006     0.39224989999999998
    43   2      3.6068370599999997      8.6950179999999992     0.14806855999999999
    44   2              1.81809983      9.0024891700000005    -0.14048923999999999
    45   2      2.3213541799999997      8.4416433499999997      1.4659596499999998
    46   1      3.0921883799999996      6.7348113500000002     -1.4762372399999999
    47   2      4.1899945499999989              6.93033316             -1.45603806
    48   2      3.1232863399999999              5.66426345     -1.6712589200000001
    49   1      2.5870981099999999      7.4239201699999997             -2.73024354
    50   2      3.1640560400000002      7.2107205399999996             -3.61759611
    51   1      2.6195420500000002      8.9862511999999999     -2.7384804499999995
    52   2      1.8701574599999999      9.4121806100000001             -2.02763531
    53   2      3.5024947799999997      9.4356174599999996     -2.3405216700000002
    54   2      2.3927029200000001               9.2913166     -3.7713690299999998
    55   1      1.1238210099999999      6.9793298200000002     -3.0373537399999999
    56   2     0.62900164999999997      6.9926809299999988     -2.0506656400000001
    57   2     0.68239243999999999      7.8556564599999996     -3.5806628200000001
    58   1     0.78068336000000005              5.64632837     -3.8291045600000002
    59   2    -0.34144621000000003      5.7405367500000004     -3.7661837899999995
    60   1      1.2627664000000001      4.3683072100000002             -3.10231236
    61   2      1.2992479100000001      4.6403170500000002     -2.0160225399999998
    62   2      2.3115770999999996      4.0240689999999999             -3.24292406
    63   2      0.5452627699999999               3.5591553     -3.4125853699999995
    64   1      1.1794691500000001      5.6932582600000003     -5.2838056599999996
    65   2              2.24945386      5.9303901899999998     -5.3325291699999999
    66   2              1.06372153      4.6627161700000004     -5.6405426899999993
    67   1     0.39238310999999992      6.5780881799999991     -6.2412308300000001
    68   2      1.0380389299999997      6.7518193499999999     -7.0208587500000004
    69   1    -0.19635338999999999      7.9354009899999989     -5.9260196699999987
    70   2             -0.76172487      8.3243159700000007     -6.7867477399999991
    71   2              0.72547887      8.6069041899999998     -5.7139642799999999
    72   2    -0.85383574999999989      7.9131223200000003     -5.1295524400000003
    73   1    -0.59372888000000001      5.6353424099999998             -6.94217906
    74   2     -1.4520832400000001      5.3517694399999991     -6.2707492399999989
    75   2    -0.13012552999999999      4.6367148900000004     -7.1677796499999999
    76   1              -1.3150066      6.1493744199999991      -8.249392229999998
    77   2     -2.2128187600000002      6.7218243699999993     -7.8660477199999992
    78   1    -0.42362022999999999      6.9646964199999992     -9.1767213600000002
    79   2             -0.54957338      6.8188108700000001     -10.315001240000001
    80   2    -0.43814067999999995      8.0242406299999978     -9.1516681199999983
    81   2     0.64040658999999989      6.7350007500000002     -9.0685540000000007
    82   1     -1.7293140099999997      4.9484643100000003             -9.08899583
    83   2     -2.1992954199999999      5.3189391799999992             -9.97612086
    84   2    -0.79487788999999998      4.4506642000000003     -9.4672407399999994
    85   1     -2.6564369000000001              3.79987845     -8.6931964599999993
    86   2     -3.7143527399999994      4.1202964099999999     -8.4071012899999999
    87   1     -2.7068702400000002      2.8241903899999996     -9.8957540599999998
    88   2     -2.6987647400000001      3.3582458299999995            -10.89201117
    89   2     -1.7312480699999997      2.2804773099999998            -10.05211313
    90   2     -3.4968704099999997      2.0827994699999994     -9.9405903500000008
    91   1     -2.2120093199999999      2.7305928000000002     -7.5578914099999999
    92   2     -1.4618926800000001      2.0815205399999996     -8.0406632099999999
    93   2     -3.0962532700000001      2.0963349199999994     -7.5111936000000004
    94   1     -1.7276754599999999      2.7875768399999998             -6.06753345
    95   2    -0.86344726999999999              3.38413867     -6.0332240999999991
    96   1     -1.2946479399999999              1.31669619     -5.7580469999999995
    97   2             -0.31258616     0.99663400999999985     -6.2554424599999994
    98   2     -1.2681017299999997     0.92029262999999983     -4.7647915999999997
    99   2     -1.9969979499999999     0.53846342999999985     -6.1307777200000002
   100   1     -2.5904217299999996      3.4272187700000001     -5.0133975599999996
   101   2     -2.6346524999999996      4.5245995900000002      -5.207579159999999
   102   2     -1.9520461999999998      3.2908166900000002     -4.0979976599999999
   103   1     -3.9307643400000001      2.8877799599999996     -4.5539602199999996
   104   2     -4.6989193499999997      3.3718229100000001     -5.1904511099999997
   105   1     -4.3331858900000002      1.3948975699999997     -4.6789710299999987
   106   2     -3.7825357899999998     0.74353209999999992     -4.0124618599999993
   107   2     -5.4506858200000003      1.3159033399999998             -4.56145947
   108   2     -4.2312816799999995     0.97432739000000002     -5.6629666199999988
   109   1     -4.3576724199999992      3.3825577799999995     -3.1129635100000002
   110   2     -5.0238108899999991      2.5837682499999999     -2.6681052599999995
   111   2             -5.04888694      4.2623561499999996     -3.2086774699999996
   112   1     -3.3250801600000002      3.7104434999999998     -2.0591594799999995
   113   2     -3.8554629699999996      3.8913982200000001             -1.15761811
   114   1             -2.52491508      2.3639319499999996              -1.8190628
   115   2     -1.4315495199999999              2.42644539     -1.8093720999999998
   116   2     -2.7797594499999998      1.6431634100000001     -2.5613322599999999
   117   2     -2.8750229699999998      1.9190000899999999    -0.89677269000000004
   118   1     -2.5490418400000001      5.0564128000000004     -2.2644339200000001
   119   2     -1.6094135899999997              4.80590837             -2.66850846
   120   2     -3.1552488300000001      5.6897632800000002             -2.94331144
   121   1     -2.1883891900000001      5.8654376499999996    -0.98461882000000001
   122   2     -3.0101547599999998      5.9924118599999998    -0.25909959999999999
   123   1     -2.0198695899999999      7.3720362499999998     -1.4325057499999998
   124   2     -2.9874756299999996       7.903911449999999     -1.5193264099999999
   125   2     -1.5283742899999999      7.4928248699999997     -2.4839257300000002
   126   2             -1.34844367      8.0376739100000005    -0.81284188999999996
   127   1    -0.99035077000000005      5.3685564399999999   -0.087924920000000004
   128   2             -0.61683968      6.2853291999999996     0.45530827000000001
   129   2    -0.17188214999999998      4.8689962999999992    -0.48159930000000001
   130   1     -1.4600453200000001      4.4171830099999996      1.0649761200000001
   131   2     -2.5184912399999999      4.1827815499999996      1.0294547000000001
   132   1             -0.76489425      2.9624031300000002     0.99932012000000003
   133   2    -0.59440868999999996              2.44660609      1.9766402099999998
   134   2     -1.3280970999999999      2.1928876599999998     0.40890225000000002
   135   2     0.19920727999999996              3.08583718     0.57424448999999989
   136   2      8.5014965199999999      11.852582439999999      6.1583236899999996
   137   2     -1.2344505699999997      4.8287866199999998      2.1046264799999994
   138   1      6.3305769399999994      3.9373837599999999      12.556862539999999
   139   2      6.2944150099999998      4.8448810599999996      11.891347919999998
   140   2      5.3082909999999996      3.5756182999999999      12.736131350000001
   141   1      7.2693924099999991              2.92031653             11.87773705
   142   2      8.2489970800000005              3.41865716      11.781004810000001
   143   1      6.9040069199999996      2.3530089799999998             10.44524932
   144   2      5.9712796599999995      2.8443997099999998      9.9936363700000008
   145   2      7.7267113500000004      2.5580850800000001      9.7142276600000006
   146   2       6.822816379999999      1.2888488199999997             10.44252389
   147   1      7.6556459200000004      1.7313054400000001      12.703458139999999
   148   2      8.1659381199999981      1.0321618699999999      12.009105610000001
   149   2      8.4361622799999996      1.9997647500000002             13.54615005
   150   1      6.5245554800000001              0.95157669      13.302927999999998
   151   2      6.0084612000000002      1.5081459999999998      14.256133839999999
   152   1              5.31754397     0.66654904999999998      12.356192460000001
   153   2      5.5492238399999998   -0.084114459999999988      11.558352940000001
   154   2      4.8874584399999987      1.5737497600000001             11.93036704
   155   2      4.5342827000000003     0.25661890999999998             13.03532012
   156   1      7.2137021900000002    -0.40091958999999999      13.635569419999998
   157   2              7.20121096    -0.89757389999999992      12.677865430000001
   158   2      8.2345116299999983    -0.15443430999999999             13.92481587
   159   1      6.7406476599999987     -1.4407072599999999              14.7176417
   160   2      7.1214630999999988             -1.05658148             15.67425115
   161   1              5.18863684             -1.57018323      14.846953939999999
   162   2      4.7725503299999996    -0.66203369999999995             15.20536727
   163   2      4.7609871799999999             -1.88308393             13.89543357
   164   2      4.9688376400000003     -2.3690382599999995      15.574823819999999
   165   1      7.2844989099999999     -2.8775561099999996             14.38901321
   166   2      6.7711191700000004     -3.6981427799999995             14.95220995
   167   2      7.0634359899999994     -3.0747560299999996      13.297895029999999
   168   1      8.8210353999999995     -2.9554081899999995      14.397803559999998
   169   2      9.2663359799999991     -2.0409311599999995      13.903981269999999
   170   1      9.3777066399999978     -3.0371061899999994      15.912230859999998
   171   2      8.7669070599999976     -2.3059606000000001      16.546558619999999
   172   2      10.433678609999998     -2.8287806099999999      16.132931710000001
   173   2      9.2760608999999974     -4.1016396999999998      16.302969600000001
   174   1      9.4543569600000001     -4.1591614200000002             13.53918554
   175   2      9.0870782099999996     -5.0605698600000002             14.09184585
   176   2      10.527599779999999     -4.1089042200000003      13.739466449999998
   177   1               9.1772741     -4.2481756500000003              12.0059226
   178   2             10.08118524     -4.8472024999999999      11.637585290000001
   179   1      9.2719549600000004     -2.8740671600000001      11.329529020000001
   180   2      10.259101100000001     -2.4512297300000001      11.549161120000001
   181   2      8.4537689099999991     -2.2568171600000002      11.753890760000001
   182   2      9.3411143600000006     -3.0022696799999995             10.24921913
   183   1      8.0301670799999982     -5.2696887099999996      11.751663669999999
   184   2      8.3416337800000004     -6.3027125099999992      11.983673270000001
   185   2      7.2216335899999988     -5.2176031799999993      12.522475879999998
   186   1      7.3319374299999991     -5.1712578499999999      10.417032349999998
   187   2              8.12752886     -4.7225675999999996      9.7210775100000006
   188   1      6.1415368199999998     -4.2364206099999988      10.455078369999999
   189   2      5.2254535100000004     -4.6448105699999997      10.890964220000001
   190   2      5.9926017500000004             -3.82099973              9.42531578
   191   2      6.3451405799999998     -3.3214005700000002             11.07176421
   192   1      6.9547636800000001     -6.4594710900000001      9.6582137899999996
   193   2      7.7533334900000002     -7.2080324499999993      9.8304507399999999
   194   2      6.9171453699999992     -6.0752970499999988       8.539551239999998
   195   1      5.6509847899999999      -7.207927409999999      9.9252197199999994
   196   2      4.8092019499999994     -6.4002817299999997      9.9084546400000004
   197   1              5.66761888     -7.6491878699999996             11.38677504
   198   2      6.5817096900000003     -8.0589194899999992      11.700521719999999
   199   2      5.5606272899999993     -6.8448921499999997      12.094534960000001
   200   2      4.9397479500000001     -8.4661223999999997      11.473150539999999
   201   1      5.2413093799999997     -8.3223318800000001      8.9806249299999994
   202   2      4.1653136999999996     -8.5187848000000006      8.9864851300000002
   203   2      5.3304818300000001      -7.927262869999999               7.9464096
   204   1      5.9257958400000001     -9.7208288199999995      8.9687675099999993
   205   2      5.4776683300000002            -10.12386302      9.9274101600000009
   206   1      5.1737987399999996            -10.63315113      7.9222859899999998
   207   2              5.11942773            -10.08057215      6.9188803400000003
   208   2      4.1227490900000001            -10.82639002      8.3795196599999997
   209   2      5.7225137200000002             -11.5615703      7.7016503099999998
   210   1      7.4197935299999997     -9.8201228199999999      9.1981068799999992
   211   2      7.6019455399999991     -8.9966095799999994      9.9476412700000001
   212   2      7.5433997899999996            -10.74941119      9.7863315400000008
   213   1              8.69644291     -9.7691745700000006      8.3693615700000006
   214   2      8.8701371000000009            -10.81379757      8.0869454499999982
   215   1      9.9430635299999999     -9.1734811100000009      9.2816775699999994
   216   2      9.9497550399999994     -9.5422170899999994      10.344575839999999
   217   2      9.8491987699999992     -8.0953034199999987      9.3299860300000006
   218   2      10.965421879999999     -9.3615211600000006      8.9680479099999975
   219   1      9.0106353000000006     -9.0065949199999977      7.0733342799999992
   220   2      9.1075113599999984     -7.8901610700000004      7.3213028799999993
   221   2      10.078899919999998     -9.3734569800000003      6.8155571399999992
   222   1      8.2023684699999997     -9.0523306899999998      5.6836716000000003
   223   2      7.3436368200000004      -8.375349159999999      5.8454327299999997
   224   1      7.6290783799999993            -10.44031034      5.3103826099999987
   225   2      6.8353188400000002            -10.75992093       6.039155609999999
   226   2      8.3616090399999994            -11.23879741      5.3472313900000001
   227   2      7.1846180199999994            -10.36873941      4.3187055399999998
   228   1      9.2546123999999974     -8.3846359600000007      4.7130148799999994
   229   2      9.8097251399999994      -7.701070099999999      5.3818668299999999
   230   2      8.7635231099999995     -7.8006822400000004      3.9303790799999998
   231   1      10.371344269999998     -9.0710288099999996      3.8525981800000002
   232   2      11.238882609999999             -8.90599718      4.4845130400000004
   233   1      10.150908790000001             -10.5910549      3.7458557099999994
   234   2      9.2686761699999991     -10.847140700000001      3.1793842099999998
   235   2      10.328952259999999     -11.057475070000001      4.7354718499999997
   236   2             11.02543571            -11.02222033      3.2499462499999998
   237   1      10.700199249999999     -8.2511481100000008      2.5772685100000001
   238   2             10.66139763     -7.2256456199999999      2.8908926500000001
   239   2      11.807771049999999     -8.4362715599999998      2.3199997399999996
   240   1      10.006357429999998     -8.4076213600000003      1.1788852700000001
   241   2             10.71680346     -7.8229212300000004              0.44182831
   242   1      8.6911290700000006     -7.6928560600000004     0.97265768999999991
   243   2      8.3058365899999984     -7.9174590399999989             -0.07239139
   244   2      8.0229381600000007     -8.0708278199999999      1.7386155199999997
   245   2      8.8329513800000008     -6.6077480800000004     0.85528013000000003
   246   1      10.025689449999998     -9.8453212899999993     0.57000439999999986
   247   2             10.97801904     -10.284372830000001     0.91305502999999999
   248   2      10.198424749999999     -9.6259214100000001    -0.51443013999999998
   249   1      9.0169715099999976     -11.057315170000001     0.47768443999999999
   250   2      8.8950975999999997     -11.184159429999999    -0.62009013000000002
   251   1      7.6492599799999992     -10.777132499999999      1.0332160399999999
   252   2      6.9625267199999996     -11.518220019999999     0.58877550999999995
   253   2      7.5727840299999993     -10.794177230000001      2.1353830600000001
   254   2      7.1404258699999987      -9.855646789999998     0.70116984999999998
   255   1              9.72179416            -12.34656375     0.93351658999999998
   256   2      10.442420200000001     -12.537246509999999              0.10698494
   257   2      10.375192889999997            -12.18683785              1.83016508
   258   1      9.0266172799999982            -13.64272997      1.0839929500000001
   259   2      8.4415619599999996     -13.871329940000001              0.16092528
   260   1      8.0556291799999986     -13.767820009999998      2.2110761000000001
   261   2      8.5488522000000007            -13.40421815      3.2045694400000002
   262   2      7.1989012700000004     -13.194000259999999      1.9167990499999998
   263   2      7.7571958300000006     -14.776417619999998              2.39638945
   264   1      10.066542289999997            -14.80555726               1.0614409
   265   2             10.87567488            -14.56237065     0.31394885999999994
   266   2      9.4968050399999999             -15.5993204              0.54921924
   267   1      10.892861389999998     -15.153092689999999      2.3300770100000001
   268   2      11.788666900000001            -15.73502131              1.99377574
   269   1      10.373356899999999     -15.937794139999999      3.5880414799999993
   270   2      9.4598078399999999     -15.383302129999999      4.0114220600000001
   271   2             11.27807805     -15.989044379999999      4.2503308899999999
   272   2      10.041507470000001     -16.962521239999997      3.3173724599999996
   273   2              6.77684818      4.2408994399999997      13.483759109999998
   274   2      11.333431129999999            -14.19476834      2.7112449499999998
   275   1      7.7994350800000003              11.2368989      21.962254139999999
   276   2      8.4055778599999993      10.387185039999999      22.402153809999998
   277   2      7.3736786799999994             11.92259733      22.678639459999999
   278   1      6.6898607199999995      10.847704289999998      20.955688110000001
   279   2      6.1796197299999998             11.74220721      20.511554139999998
   280   1      5.4408261199999988      10.351050509999999      21.783308859999998
   281   2      5.3445881999999996      11.059053969999999      22.665038490000001
   282   2      5.6590673499999991      9.3514041699999986      22.222566059999998
   283   2      4.5465728500000004      10.409475459999999      21.205827489999997
   284   1      7.1541640800000001      10.144752390000001      19.678519869999999
   285   2      7.6862545199999994      9.2415249900000003              20.0137657
   286   2      7.8566932499999993             10.75265825      19.141757670000001
   287   1       6.034471739999999      9.6275277100000007      18.735241469999998
   288   2      5.1581148900000002             10.20209075             18.87306238
   289   1      6.3562557100000001      9.9638633799999994      17.310693009999998
   290   2      5.6093281800000003      9.6427570100000004      16.613832819999999
   291   2      6.2994455799999995             11.03354238      17.198396159999998
   292   2      7.3347056200000003      9.5071106599999986             17.06334343
   293   1       5.754266219999999      8.1013547100000007      19.201764470000001
   294   2      5.4979937200000002      8.1220743399999993      20.328576229999999
   295   2      6.7613281099999991      7.5690117599999995      19.171654459999999
   296   1      4.8063978499999997      7.1037462500000004              18.5084534
   297   2      4.8230318999999993              6.14469522              19.0973918
   298   1      3.4162774800000002      7.6123305899999991      18.792637209999999
   299   2      3.3251772599999998      8.6559960999999994      18.398054549999998
   300   2      2.5231614100000002              7.11382154      18.471322369999999
   301   2      3.3482850000000002      7.5420433400000002      19.947503479999998
   302   1      5.1026231900000001      6.5855261499999997             17.07342624
   303   2      6.1737623499999987      6.3136277300000003              17.1777947
   304   2      5.1358757600000002      7.3618612900000002      16.274879240000001
   305   1      4.2171147199999997      5.4180293300000004      16.589039549999999
   306   2      4.7478459800000001      5.0716572700000002      15.696006789999998
   307   1      4.2388014099999998      4.1620255999999989             17.56648616
   308   2      5.2101370399999993                4.035507      18.024467999999999
   309   2      3.4686676999999997      4.3669785900000004             18.35347535
   310   2              3.84644181      3.2063733799999996             16.98370645
   311   1      2.8386968499999998      5.7526527399999994             16.07577135
   312   2      2.4654825899999997      4.7484065899999992             15.55521804
   313   2      2.1358717399999998      5.9037126100000004      16.962892929999999
   314   1      2.4889713499999999      6.9638086699999997             15.08130948
   315   2      1.4663061399999999      6.6812975899999998      15.022972129999999
   316   1      2.5944280399999999      8.3814562000000006      15.582476029999999
   317   2      3.6068370599999997      8.6950179999999992             15.33829469
   318   2              1.81809983      9.0024891700000005      15.049736889999998
   319   2      2.3213541799999997      8.4416433499999997      16.656185779999998
   320   1      3.0921883799999996      6.7348113500000002             13.71398889
   321   2      4.1899945499999989              6.93033316      13.734188069999998
   322   2      3.1232863399999999              5.66426345             13.51896721
   323   1      2.5870981099999999      7.4239201699999997      12.459982589999999
   324   2      3.1640560400000002      7.2107205399999996      11.572630019999998
   325   1      2.6195420500000002      8.9862511999999999             12.45174568
   326   2      1.8701574599999999      9.4121806100000001      13.162590819999998
   327   2      3.5024947799999997      9.4356174599999996      12.849704459999998
   328   2      2.3927029200000001               9.2913166              11.4188571
   329   1      1.1238210099999999      6.9793298200000002      12.152872389999999
   330   2     0.62900164999999997      6.9926809299999988      13.139560489999999
   331   2     0.68239243999999999      7.8556564599999996      11.609563309999999
   332   1     0.78068336000000005              5.64632837      11.361121569999998
   333   2    -0.34144621000000003      5.7405367500000004             11.42404234
   334   1      1.2627664000000001      4.3683072100000002             12.08791377
   335   2      1.2992479100000001      4.6403170500000002      13.174203589999999
   336   2      2.3115770999999996      4.0240689999999999      11.947302069999999
   337   2      0.5452627699999999               3.5591553      11.777640760000001
   338   1      1.1794691500000001      5.6932582600000003      9.9064204700000005
   339   2              2.24945386      5.9303901899999998      9.8576969599999984
   340   2              1.06372153      4.6627161700000004       9.549683439999999
   341   1     0.39238310999999992      6.5780881799999991               8.9489953
   342   2      1.0380389299999997      6.7518193499999999      8.1693673799999988
   343   1    -0.19635338999999999      7.9354009899999989      9.2642064600000005
   344   2             -0.76172487      8.3243159700000007      8.4034783900000001
   345   2              0.72547887      8.6069041899999998      9.4762618500000002
   346   2    -0.85383574999999989      7.9131223200000003      10.060673689999998
   347   1    -0.59372888000000001      5.6353424099999998      8.2480470699999984
   348   2     -1.4520832400000001      5.3517694399999991      8.9194768900000003
   349   2    -0.13012552999999999      4.6367148900000004      8.0224464799999993
   350   1              -1.3150066      6.1493744199999991      6.9408339000000012
   351   2     -2.2128187600000002      6.7218243699999993              7.32417841
   352   1    -0.42362022999999999      6.9646964199999992      6.0135047699999991
   353   2             -0.54957338      6.8188108700000001      4.8752248899999984
   354   2    -0.43814067999999995      8.0242406299999978      6.0385580100000009
   355   2     0.64040658999999989      6.7350007500000002      6.1216721299999985
   356   1     -1.7293140099999997      4.9484643100000003      6.1012302999999992
   357   2     -2.1992954199999999      5.3189391799999992      5.2141052699999992
   358   2    -0.79487788999999998      4.4506642000000003      5.7229853899999998
   359   1     -2.6564369000000001              3.79987845      6.4970296699999999