(written by ASE)

32 atoms
2 atom types

0.0                      20  xlo xhi
0.0                      20  ylo yhi
0.0                      20  zlo zhi

Atoms # atomic

     1   1                       0                       0                       0
     2   1      1.3336399999999999                       0     0.77000000000000002
     3   1      2.6672799999999999                       0                       0
     4   1      4.0009199999999998                       0     0.77000000000000002
     5   1      5.3345599999999997                       0                       0
     6   1      6.6681999999999997                       0     0.77000000000000002
     7   1      8.0018399999999996                       0                       0
     8   1      9.3354800000000004                       0     0.77000000000000002
     9   1      10.669119999999999                       0                       0
    10   1                12.00276                       0     0.77000000000000002
    11   2                       0                    1.05                     0.5
    12   2                       0                   -1.05                     0.5
    13   2      1.3336399999999999                    1.05                    1.27
    14   2      1.3336399999999999                   -1.05                    1.27
    15   2      2.6672799999999999                    1.05                     0.5
    16   2      2.6672799999999999                   -1.05                     0.5
    17   2      4.0009199999999998                    1.05                    1.27
    18   2      4.0009199999999998                   -1.05                    1.27
    19   2      5.3345599999999997                    1.05                     0.5
    20   2      5.3345599999999997                   -1.05                     0.5
    21   2      6.6681999999999997                    1.05                    1.27
    22   2      6.6681999999999997                   -1.05                    1.27
    23   2      8.0018399999999996                    1.05                     0.5
    24   2      8.0018399999999996                   -1.05                     0.5
    25   2      9.3354800000000004                    1.05                    1.27
    26   2      9.3354800000000004                   -1.05                    1.27
    27   2      10.669119999999999                    1.05                     0.5
    28   2      10.669119999999999                   -1.05                     0.5
    29   2                12.00276                    1.05                    1.27
    30   2                12.00276                   -1.05                    1.27
    31   2                    -0.5                       0                    -0.5
    32   2      13.836399999999999                       0                     0.5
